1
Lattice="20.0 0.0 0.0 0.0 20.0 0.0 0.0 0.0 20.0" Properties=species:S:1:pos:R:3:forces_xtb:R:3:MACE_forces:R:3 config_type=IsolatedAtom energy_xtb=-10.707211383396714 MACE_energy=-10.707211383396714 pbc="F F F"
H        0.00000000       0.00000000       0.00000000      -0.00000000      -0.00000000      -0.00000000      -0.00000000      -0.00000000      -0.00000000
1
Lattice="20.0 0.0 0.0 0.0 20.0 0.0 0.0 0.0 20.0" Properties=species:S:1:pos:R:3:forces_xtb:R:3:MACE_forces:R:3 config_type=IsolatedAtom energy_xtb=-48.847445262804705 MACE_energy=-48.847445262804705 pbc="F F F"
C        0.00000000       0.00000000       0.00000000      -0.00000000      -0.00000000      -0.00000000      -0.00000000      -0.00000000      -0.00000000
1
Lattice="20.0 0.0 0.0 0.0 20.0 0.0 0.0 0.0 20.0" Properties=species:S:1:pos:R:3:forces_xtb:R:3:MACE_forces:R:3 config_type=IsolatedAtom energy_xtb=-102.57117256025786 MACE_energy=-102.57117256025786 pbc="F F F"
O        0.00000000       0.00000000       0.00000000      -0.00000000      -0.00000000      -0.00000000      -0.00000000      -0.00000000      -0.00000000
24
Properties=species:S:1:pos:R:3:molID:I:1:forces_xtb:R:3:MACE_forces:R:3 Nmols=3 Comp=VC(3) energy_xtb=-1602.093208085042 MACE_energy=-1601.3550682274738 pbc="F F F"
C        0.45285612       3.01426506      -2.32330513        0       3.62106606      -1.12550680      -0.19684125       3.32542238      -1.12576035      -0.32601102
C       -0.65326887       3.32036090      -1.70732403        0      -1.81489737       1.01194504      -0.49020132      -1.84459049       0.80883127      -0.15345972
O       -0.82637185       2.63587189      -0.55307001        0       1.41031489      -1.26663628       0.06188905       1.44211040      -1.16257701      -0.35147639
C        0.26635113       1.80842292      -0.42423803        0       1.27416396       1.38844752      -1.73986379       1.45963907       1.38892996      -0.44986304
O        0.50404215       1.07012391       0.47730500        0      -0.61981038       0.63996309      -0.89362449      -0.74554372       0.91570579      -1.94848185
O        1.20395112       2.09938192      -1.54059100        0      -3.53123319       0.61084665       1.50360436      -3.36050246       0.51861072       1.25533203
H        0.99488211       3.42258286      -3.19497991        0      -0.71396603      -0.51942534       0.75149469      -0.58803492      -0.43842511       0.78547249
H       -1.42996383       3.95062685      -2.12583590        0       0.03097542      -0.19964488       0.59769880       0.08286412      -0.27097718       0.56573389
C        1.26803315       0.08491497       2.52308202        1       0.65480947      -1.14022036       2.08585961       0.56203114      -1.13294572       2.53432189
C        0.71784115      -0.92897701       3.20788789        1      -5.26405952       0.22643523       1.88452821      -4.96399337       0.01467577       2.23106800
O        0.64552510      -2.02956414       2.40690088        1       0.96823076      -0.94201777       0.52119636       0.91111085      -0.82619268       0.55827596
C        1.62233818      -1.82807600       1.46278298        1      -0.41482569      -1.20143422      -1.22733270      -0.33086018      -1.87097163      -1.33269982
O        2.07954812      -2.65240097       0.69964898        1      -0.91853127       1.45343521       1.43428658      -0.84612522       1.64645657       1.64969360
O        1.90033615      -0.53814703       1.52785194        1       2.51044506       0.92653883      -1.79500979       2.26520196       1.47294805      -2.25288519
H        1.60973608       0.97362196       3.01618791        1       0.04719281       0.33493254      -0.77449250       0.07023353       0.20586156      -0.59846397
H       -0.23638988      -0.89091206       3.98334789        1       2.80150221      -0.10651323      -1.71485168       2.81633145      -0.00858227      -1.88333458
C       -2.61711597      -1.50253499       0.01472599        2       0.50478395       2.47864959      -1.00566519       0.18180067       2.11901639      -1.19614513
C       -1.65134692      -2.33284712      -0.23200200        2       2.75766410      -1.01761516      -0.45354364       2.26824898      -1.11635013      -0.70724042
O       -0.75461686      -1.64041007      -1.12287402        2      -0.07451072      -2.49583912       0.90103163       0.40995793      -2.34011444       0.90286184
C       -1.23930693      -0.42871904      -1.39447701        2       0.29818897      -0.80850703      -0.94432786       0.23893841      -0.54377290      -0.66528105
O       -0.76134789       0.30777997      -2.22421694        2      -0.98455609      -0.47602768       1.41198409      -1.05128926      -0.66804002       0.97785662
O       -2.37302589      -0.32890302      -0.69123900        2      -1.25788384       1.06603386       0.34345775      -1.23149787       1.10020345       0.34485963
H       -3.27383399      -1.43262005       0.79540098        2      -1.76535623      -0.00240229       1.06447075      -1.46699408       0.11728194       1.24914835
H       -1.51131582      -3.31143308       0.29795000        2       0.48029268       1.16456260      -1.32574766       0.39554067       1.19618798      -1.18928212
22
Properties=species:S:1:pos:R:3:molID:I:1:forces_xtb:R:3:MACE_forces:R:3 Nmols=2 Comp=DMC(1):EC(1) energy_xtb=-1151.6688033579703 MACE_energy=-1151.3178578157433 pbc="F F F"
C        2.69088602       2.54591513      -2.12696218        0      -1.44302882       4.71896954       1.76744346      -1.47368006       4.71047548       1.68512099
O        2.34068704       3.64524508      -1.67616713        0       0.49261950      -2.16502856      -0.87601464       0.51131550      -2.33089115      -0.84540176
O        1.94911408       1.49887204      -2.25967312        0       0.08290276      -1.50319163      -0.60949423       0.17090807      -1.39583635      -0.31016784
O        3.84929514       2.26471615      -2.58353305        0       2.38826982      -1.13778665      -0.64777106       2.38467942      -1.12632972      -0.64869806
C        0.58085805       1.60748911      -2.26327205        0      -1.67246761      -0.37329840      -0.89736654      -1.69983130      -0.26351219      -1.02220469
C        4.93368006       3.14626217      -2.62285423        0       2.55973756      -0.98252846      -1.05991298       2.38810534      -0.79848015      -1.08045885
H        0.20010208       1.35155511      -1.32161117        0      -0.59307375      -0.34573938       1.76688746      -0.51921970      -0.43414495       1.66105483
H        0.13602108       2.57295012      -2.51098919        0       0.55033615       0.21276971      -0.24590246       0.55681830       0.21770440      -0.28188290
H        0.19209708       0.83466810      -2.94893003        0       0.20277521       0.32784010      -0.10811587       0.26344028       0.37748016      -0.03532361
H        5.82548094       2.54683304      -3.02168822        0      -1.01599830      -0.01199392       0.62864621      -1.10454322       0.00584218       0.67995564
H        4.87149000       3.85138416      -3.42286325        0      -0.77010801       1.05527897      -0.16147346      -0.74281591       0.98200328      -0.28162178
H        5.33360624       3.57181811      -1.71259320        0      -0.78097032       0.20739009       0.44230873      -0.73517671       0.05568902       0.47962801
C       -3.41220593      -1.40147686       1.27721584        1       3.64054136      -2.81566267       1.08263902       3.82515150      -2.70267913       1.00018004
O       -2.92165089      -1.47329795       2.67879891        1      -1.00730296       1.23045966      -1.84974758      -1.40332909       1.19515169      -1.55728925
C       -2.61571789      -2.75121093       2.98010492        1       2.01716624       2.21029162       2.34244272       1.60371907       2.03208234       2.44469315
O       -3.01706386      -3.61698890       2.14714384        1      -0.84185866      -0.82087526      -3.92810567      -0.62343978      -0.43564064      -3.53818966
C       -2.94653201      -2.85366082       0.89804888        1      -1.06634372      -0.75061646      -0.84421464      -0.83471248      -0.85997068      -1.35266868
H       -4.42421579      -1.24309289       1.20551991        1      -2.15521241       0.42518767       0.11001940      -2.18323532       0.55516581       0.17789896
H       -2.80409384      -0.83304894       0.58278483        1      -0.06996537       1.03528950       0.60791017      -0.04278870       0.97642858       0.54244473
O       -1.86870396      -2.94726801       3.88132596        1      -0.13940783      -0.44661913       1.10839100       0.12946753      -0.54135690       0.95763135
H       -3.50762296      -3.30938387       0.07090886        1      -0.53079339      -0.18326027       0.61016437      -0.62518144      -0.26853347       0.66901272
H       -1.93009996      -2.85789800       0.47551787        1       0.15218256       0.11312392       0.76126658       0.15434871       0.04935241       0.65628663
25
Properties=species:S:1:pos:R:3:molID:I:1:forces_xtb:R:3:MACE_forces:R:3 Nmols=2 Comp=DMC(1):PC(1) energy_xtb=-1237.237209489243 MACE_energy=-1236.9394232924606 pbc="F F F"
C        2.67575073       2.86108518      -2.86082530        0      -1.30097570      -1.36862690       1.83477318      -0.97050502      -1.68242065       1.90899825
O        2.76785755       3.16294599      -1.37367737        0       2.81754333       3.21457277      -4.01299763       2.93878059       3.40734286      -4.11939404
C        2.53783751       2.18929100      -0.59767431        0      -0.55950426       2.04121600       5.40751014      -0.77958867       2.29961286       5.37585842
O        1.93164957       1.26053202      -1.20610726        0      -1.61137385      -3.50925478      -2.49817815      -1.49760772      -3.58202690      -2.50613669
C        1.75701964       1.53768110      -2.68214726        0       1.83647158       0.68400742       2.01585908       1.49583897       0.62516832       1.90728360
C        1.82226360       3.92414308      -3.45830131        0      -0.23871064       0.37550063      -1.29201094      -0.51159335       0.34291445      -1.27488035
H        3.62236261       2.79383111      -3.48461127        0      -0.71111490      -0.40100834       1.51896640      -0.66979870      -0.32606771       1.61177433
O        2.62325168       2.39863515       0.62851471        0       0.06653047      -1.57737196      -3.09928319       0.16429716      -1.68145940      -2.98735516
H        0.69594961       1.78663802      -2.79194736        0       0.33209784      -0.31548514      -0.25553672       0.35561075      -0.44173724      -0.28815678
H        2.12722850       0.64140809      -3.18146920        0      -0.32683081       0.22616509      -0.09842209      -0.27113032       0.36877883      -0.12966102
H        0.94558364       4.07772589      -2.83702040        0       0.23616695       0.63635891       0.22349728       0.21067106       0.71078889       0.28753547
H        2.44793057       4.83902597      -3.65341330        0      -1.11245845      -0.83020881       0.14549641      -0.98742399      -0.93104339       0.15789824
H        1.39495564       3.45968413      -4.37784052        0       0.56515652       0.82509144       0.10667999       0.52244925       0.89014909       0.05623573
C       -2.77969742      -2.77740502       1.95494866        1       1.98409950      -0.14078010      -1.93362978       1.72784424       0.13750733      -2.06038248
O       -3.66863132      -2.42830992       2.60583663        1      -2.90542638       1.44794122       1.50300244      -2.76329888       1.36747336       1.43096048
O       -2.29131937      -2.42984796       0.79584169        1      -1.00253771       3.19629893      -3.24858669      -0.94336965       2.99580017      -3.25020416
O       -1.89286339      -3.66918087       2.21758556        1       1.54786360      -2.60940773       1.41288002       1.54455509      -2.53072513       1.36822742
C       -2.91089439      -1.28356600       0.07705668        1       1.89642600      -1.15162137      -0.78334730       1.87994989      -1.05625157      -0.70414159
C       -2.05939937      -4.26767588       3.43624568        1       0.99074494      -3.64001500       0.93542783       0.97838883      -3.88916934       1.41903515
H       -3.72709346      -1.70948493      -0.53036433        1       0.38969980       0.63617318       0.22162127       0.39770647       0.61184341       0.14988876
H       -3.16581345      -0.57542592       0.80696666        1      -1.04987185       0.78259073       0.93248256      -1.04456544       0.80990347       0.95418565
H       -2.09199142      -0.74095094      -0.52423334        1      -1.07479040      -1.32118166       0.47894917      -1.10266349      -1.28050715       0.43085705
H       -1.32394242      -5.09556913       3.62502956        1      -0.15739394       0.56448693      -0.84804908      -0.09218606       0.54219832      -0.90429995
H       -1.93663037      -3.67549205       4.25493479        1       0.62014139       2.56192162       2.09449974       0.67221414       2.61311300       2.00916745
H       -2.99357438      -4.73741913       3.66374469        1      -1.23195305      -0.32736309      -0.76160393      -1.25457514      -0.32118586      -0.84329376
27
Properties=species:S:1:pos:R:3:molID:I:1:forces_xtb:R:3:MACE_forces:R:3 Nmols=2 Comp=DMC(1):EMC(1) energy_xtb=-1265.180028034832 MACE_energy=-1264.847600819662 pbc="F F F"
C       -2.03106403       0.65746909       0.26760513        0       0.98555934      -0.42535498      -0.10633788       0.76670222      -0.32242169      -0.19700029
O       -1.07807493       0.48504212       1.01702011        0      -2.17789891       0.87992234      -2.16891800      -1.92639530       0.85384385      -2.09387277
O       -3.26775193       0.23020512       0.42069915        0      -0.74313263      -0.38011230      -0.33893217      -0.62414437      -0.36127804      -0.45966436
O       -2.21094799       1.20861411      -0.95951784        0       2.83182507       0.12702591      -0.60351812       2.99239741       0.21775139      -0.72630906
C       -3.54576588      -0.43989488       1.59327912        0      -0.55223350       0.92076065       2.17889453      -0.57059413       0.86944475       2.27777031
C       -0.96694797       1.71850216      -1.62740982        0      -2.55346537      -0.97363999      -0.17803650      -2.75849847      -0.96250136      -0.03438682
C       -5.02091789      -0.62569290       1.77413309        0      -2.43043276      -3.38432755      -1.10590042      -2.52647151      -3.45019501      -1.04543154
H       -3.05448604      -1.41090190       1.60176313        0       0.36670347       0.08595527       0.39358467       0.34699304       0.04946150       0.36396022
H       -3.22410202       0.31734413       2.37260509        0       0.18724531      -1.36618818       0.08940653       0.21848471      -1.34580961       0.07067464
H       -0.72410798       2.40959311      -0.88021588        0       1.32314528       1.44888278       0.16549100       1.38351591       1.43409952       0.12978078
H       -0.25252098       0.92709315      -1.77050185        0       0.18392482      -0.28990190       0.25588645       0.19718643      -0.25403370       0.12603314
H       -5.35431385      -1.19761384       2.70942616        0       0.98390135       0.83072053      -1.14347294       0.91730480       0.79308007      -1.07564782
H       -5.65353584       0.21069811       1.69021618        0      -0.07093223       1.50044560       0.24868063      -0.04774535       1.52936858       0.23580326
H       -5.48677492      -1.27245092       0.88484311        0       1.25100885       0.82632357       1.54819069       1.32770624       0.85575175       1.54240975
H       -1.31561697       2.06881022      -2.61999083        0       0.27156532       0.17735849       0.84257396       0.30652206       0.09940361       0.87024251
C        2.86216998      -0.54789591      -0.30648586        1      -1.29999496       2.83588086       0.24865513      -1.16654786       2.97019762      -0.08481252
O        2.04342008       0.15615812       0.27660215        1       1.24049576      -2.48924095       0.49428262       1.00658854      -2.49205049       0.74795570
O        3.26260614      -0.10306588      -1.49444783        1       0.72998208      -0.98746920      -0.72248560       0.73145176      -1.10389130      -0.39723178
O        3.59369302      -1.61061084      -0.04163986        1       0.26854721       0.34168970       0.19012287       0.13654849       0.41213852       0.18500270
C        2.62956214       0.98352611      -2.09231687        1      -0.27224153       1.06504974      -0.20527242      -0.25576882       1.00204160      -0.29669279
C        3.55574894      -2.15067077       1.29780114        1      -1.62342756       0.93331613      -1.30990327      -1.60450602       0.78155709      -1.42460930
H        1.88944602       0.64559013      -2.80296278        1      -0.24807240      -0.30642385      -0.38656659      -0.19439379      -0.26815065      -0.36305508
H        2.08495712       1.70345008      -1.42564690        1       0.87038645      -0.68158457      -0.08896534       0.85615934      -0.68750339      -0.17763093
H        3.46013594       1.43517017      -2.62836289        1      -0.20121891       0.54651175      -0.12191244      -0.26961449       0.56984226      -0.09585470
H        4.11010695      -3.05958986       1.20176017        1       0.94234581      -0.03528665       0.59829777       0.96909845       0.04793667       0.63104239
H        3.79936910      -1.30624783       1.98418510        1      -0.03427572      -1.25933599      -0.12544949       0.02438709      -1.25955812      -0.11960028
H        2.50926495      -2.46688581       1.28762710        1      -0.22930963       0.05902281       1.35160434      -0.23636638       0.02147458       1.41112463
40
Properties=species:S:1:pos:R:3:molID:I:1:forces_xtb:R:3:MACE_forces:R:3 Nmols=4 Comp=EC(4) energy_xtb=-2248.1644835301763 MACE_energy=-2246.749874424832 pbc="F F F"
C       -0.45859733       3.28287387      -3.49498057        0      -1.02964088       2.44036197      -2.62142183      -0.88942058       2.10344663      -2.62391700
O        0.88948870       3.79171300      -3.25429845        0      -2.44024720      -0.78844767       0.70340402      -2.51752458      -0.42544937       0.84582949
C        1.77967572       2.90106797      -3.77192235        0       0.17839822       3.88313800      -0.31232209       0.87698578       3.86898869      -0.11290902
O        1.17627263       1.93414199      -4.35922432        0      -0.15995377      -2.00047855      -0.64709496      -0.15575468      -2.14328811      -0.59685971
C       -0.21532533       1.93098700      -4.04651356        0      -0.23860181      -3.35198939       0.13525636      -0.42783898      -3.25885329       0.09569097
H       -1.27154136       3.41099501      -2.76392436        0       1.11580969      -0.14261261       0.41614468       1.06351756      -0.01816700       0.58846240
H       -0.92158234       3.83359003      -4.43693542        0       1.01129830      -0.01693160       1.54962332       0.96025529      -0.09105177       1.56211226
O        2.90443778       3.31073308      -3.80425644        0       0.38751531      -1.65296589      -0.21742359       0.14313723      -1.57753675      -0.00611481
H       -0.37066332       1.10437799      -3.21093941        0       0.06712425       1.07272958      -1.56852920      -0.02351716       1.11420943      -1.77459526
H       -0.76461333       1.62513399      -5.02565050        0       0.72730400       0.51091119       1.75312419       0.75792684       0.46214136       1.75515724
C       -3.80103922      -2.50376415       2.43770266        1      -1.00674411       0.71035417      -3.12390011      -0.80940428       0.63458196      -2.98268641
O       -3.38939834      -3.25377202       1.26028454        1       0.86604768      -0.66337216       0.52313075       0.62045804      -0.96638623       0.64315108
C       -2.30445933      -3.99550915       1.61562252        1       2.89373971      -0.24361420      -2.22550806       2.96209477      -0.51938537      -2.55979280
O       -2.14457035      -4.05070019       2.94205546        1      -0.67962715       0.54789211      -0.54771738      -0.66329364       0.40657961      -0.49186109
C       -2.87330842      -2.91826797       3.46709847        1       1.56061260      -1.69201553       3.42490023       1.39127433      -1.56785549       3.22756900
H       -3.50343823      -1.48718607       2.20085359        1      -0.75929802       0.62954262      -0.30100640      -0.78239186       0.80631838      -0.17534785
H       -4.90017223      -2.60740995       2.47806549        1       0.54052099      -0.11388727       0.50508620       0.56257745      -0.00594407       0.41387492
O       -1.42242634      -4.39646721       0.83060056        1      -3.30253559       0.80649153       2.09357706      -3.42003643       1.07275778       2.26039466
H       -2.05277324      -2.11510110       3.58914661        1      -1.30202574      -1.14077677       0.77284507      -1.27476240      -1.03659317       0.88111916
H       -3.41370034      -3.34911704       4.41145039        1       1.25499681       1.17876329      -1.12773283       1.37027970       1.26193862      -1.21846427
C        2.30157065       3.02082801      -0.87318546        2       2.05473850       0.98566782       0.38669201       1.23852154       0.80638294       0.13681699
O        1.55322373       4.09202099      -0.41163146        2      -1.49998819       0.19168174      -0.62351492      -1.14797404       0.16999847      -0.77528603
C        0.22185968       3.76526093      -0.52127045        2      -0.59176904       3.63828609       2.40993820      -1.12053505       3.08810878       2.60161083
O        0.00528267       2.46501303      -0.45626047        2       2.80117283      -0.67423269      -2.07082363       2.85517779      -0.10826780      -1.89383734
C        1.41516268       1.88063395      -0.86391044        2      -4.14718597      -3.45500107       0.38067975      -3.65137207      -3.25603196       0.38143281
H        2.83828473       3.31009007      -1.79112947        2      -0.49467311      -0.24972666      -0.00772500      -0.32364826      -0.21004655      -0.19669830
H        3.08249879       2.85036993      -0.17078246        2       1.02991433      -0.06948351       1.03564458       0.99710714      -0.09413881       0.85155796
O       -0.57856935       4.68077612      -0.37167346        2       0.95681577      -2.54881062      -0.79633335       1.12798903      -2.48151020      -0.95056570
H        1.33951473       1.28182793      -1.79590452        2      -0.33893043       0.88495502      -0.16935120      -0.27759925       0.80493433      -0.09134160
H        1.47189569       0.99151593      -0.16966246        2       0.60043592       1.35766190       0.25726959       0.51693818       1.20428059       0.21663091
C        0.88761669      -2.09321308       0.81132352        3      -3.70423616      -0.54123346      -1.44430376      -3.73584838      -0.35836897      -1.71355824
O        0.03761967      -1.97608399       2.01637745        3      -0.19455703       2.74456809      -1.17131930      -0.19432056       2.50831610      -1.02293590
C        0.60278767      -2.53470492       3.05735755        3       0.83635149      -2.68859326       0.63951379       0.52336412      -2.38372215       0.87883580
O        1.52326167      -3.40426898       2.49319744        3       0.03483702      -0.86690659       1.99679364      -0.01237659      -1.18652637       1.96953216
C        1.51099765      -3.45389700       1.07032657        3       0.35855844       2.96666867       1.81723816       0.51707051       3.17145603       1.98846634
H        0.08297767      -2.01841211      -0.05692146        3       1.41167270      -0.55782875       1.48250804       1.43224121      -0.45254858       1.57357067
H        1.59659469      -1.32058406       0.56207752        3       0.19832599       0.54328106       0.92742040       0.13476465       0.49826572       0.73115821
O        0.34869966      -2.52002215       4.24030066        3       0.33005817       0.61831501      -2.51404155       0.33688486       0.57545493      -2.47837064
H        1.02420068      -4.25862026       0.65650052        3      -1.23837654      -1.83379367      -0.57210434      -0.90690069      -1.87976791      -0.65182014
H        2.53591371      -3.38821101       0.90628552        3       1.91214201      -0.41856793      -1.14861653       1.94595346      -0.53672042      -1.28601179
30
Properties=species:S:1:pos:R:3:molID:I:1:forces_xtb:R:3:MACE_forces:R:3 Nmols=3 Comp=EC(3) energy_xtb=-1687.2692238458048 MACE_energy=-1686.3289138372327 pbc="F F F"
C       -4.12463999      -1.38331330      -2.42669320        0       0.09104650      -0.15763039       0.98994118       0.06628802      -0.10672349       0.90417280
O       -4.85671186      -0.58527428      -3.29135799        0      -0.98012076       1.37422403      -0.74262993      -0.87673946       1.04398951      -0.60995500
C       -4.90107059      -1.11834621      -4.56758595        0      -1.12794931       0.67673822       1.08467529      -1.06759481       0.68772564       1.01281215
O       -4.02001286      -2.08291125      -4.62866592        0       1.45807675      -0.89482105      -0.32429035       1.43085277      -0.76397698      -0.47174844
C       -3.24393392      -2.16244316      -3.42454815        0      -3.01201907      -1.17568812       0.95868559      -2.89111721      -1.08011858       1.12820498
H       -3.52626491      -0.84614927      -1.66835916        0      -0.08465048       0.41016128      -0.70877470      -0.06659438       0.39040670      -0.66965172
H       -4.85408068      -1.92120123      -1.77655911        0       0.41580059      -0.47198054      -0.69237947       0.32510628      -0.32085290      -0.57205965
O       -5.69529676      -0.78748024      -5.39322805        0       0.89551726      -0.15010949       0.47420076       0.81875257      -0.19060991       0.47298519
H       -2.31512570      -1.72622728      -3.47138715        0       2.10108454       0.96385609      -0.69241821       2.08834592       0.92393019      -0.72230831
H       -3.18651271      -3.17717123      -3.06380701        0       0.22651304      -0.58505138      -0.34151321       0.16269307      -0.65572009      -0.44979794
C        0.30978417      -0.65456825      -0.57457012        1       2.58552324      -0.84180302       0.97681712       2.53222035      -0.95717298       1.04468423
O       -0.88102782      -1.13273120      -0.17320210        1      -2.67352084      -0.34970297       1.23867786      -2.61004940      -0.30058946       1.29423951
C       -1.14308679      -2.33998322      -0.65088713        1       1.53931777       0.53508340      -2.08839916       1.56559752       0.72654981      -2.20329258
O       -0.15073483      -2.73469424      -1.49947405        1       1.74784525       0.60110252       0.75866028       1.89677294       0.43076820       0.87038609
C        0.98336518      -1.88646221      -1.22591114        1       0.75148662       0.75502601      -0.96806784       0.70453374       0.86433183      -1.06226635
H        0.22791818       0.14389074      -1.23837507        1      -0.32078005       1.57333470      -1.09122087      -0.25546116       1.62246623      -1.02191180
H        0.85364717      -0.37587824       0.35009891        1       0.08096431       0.30423257      -0.47223783       0.03702072       0.40303617      -0.39009146
O       -2.14108491      -2.93444228      -0.60166711        1      -2.03810674      -1.00249535       0.83374200      -2.25906968      -1.06738894       0.79053549
H        1.68404114      -1.63605428      -2.08693218        1      -1.57307414      -0.35718140       0.27611214      -1.52937839      -0.45388810       0.13375397
H        1.70171022      -2.23403931      -0.50286508        1      -0.08203307      -1.21664304       0.52584898      -0.07217939      -1.19616284       0.52130882
C        3.67231321       2.92746186       3.89800692        2      -0.55411990      -1.22280470       1.96551821      -0.52643137      -1.11708003       1.87127456
O        4.82196808       2.26200986       4.53771782        2      -2.75631484      -2.23145319      -0.78421429      -2.78511360      -2.28133668      -0.60550461
C        5.47337103       3.08063078       5.26452112        2       3.23302845       2.21541170       1.04417750       3.37586327       2.06050101       0.88136999
O        5.27526140       4.36545181       4.83315992        2      -0.63050348      -0.47204356      -0.05615252      -0.54125961      -0.55013157      -0.10295956
C        4.28790140       4.29067278       3.83464384        2      -0.82883767       2.07491570      -0.60316602      -0.99136397       2.14004853      -0.58965677
H        3.43658614       2.38041568       2.99494600        2       0.38128142       0.23686614      -0.39144115       0.41910283       0.13448071      -0.36167253
H        2.68566012       2.82074285       4.53663397        2       1.86752376       0.29129061      -0.53946525       1.88920830       0.29667065      -0.64707619
O        6.34440804       2.87332678       6.06447983        2      -1.10951032      -0.52041832      -0.39576775      -1.15016721      -0.43926615      -0.26610201
H        4.68179321       4.43559790       2.83605695        2       0.74582793       0.04762879      -0.35222316       0.62650877       0.07264556      -0.34037113
H        3.64824009       5.17260456       3.99479294        2      -0.34929678      -0.41004525       0.11730479      -0.31634741      -0.31653202       0.16069825
28